
     Program PWSCF v.7.5 starts on 20Jan2026 at 13:29:14 
        Git branch: koopmans
        Last git commit: 485eae7783f2b601f449c6ac6c71715612f00ebc-dirty
        Last git commit date: Fri Jan 16 16:15:35 2026 +0100
        Last git commit subject: Debugging

     This program is part of the open-source Quantum ESPRESSO suite
     for quantum simulation of materials; please cite
         "P. Giannozzi et al., J. Phys.:Condens. Matter 21 395502 (2009);
         "P. Giannozzi et al., J. Phys.:Condens. Matter 29 465901 (2017);
         "P. Giannozzi et al., J. Chem. Phys. 152 154105 (2020);
          URL http://www.quantum-espresso.org", 
     in publications or presentations arising from this work. More details at
     http://www.quantum-espresso.org/quote

     Parallel version (MPI), running on     8 processors

     MPI processes distributed on     1 nodes
     172618 MiB available memory on the printing compute node when the environment starts
 
     Reading input from espresso.pwi
Warning: card &IONS ignored
Warning: card &CELL ignored
Warning: card &FCP ignored
Warning: card &RISM ignored

     Current dimensions of program PWSCF are:
     Max number of different atomic species (ntypx) = 10
     Max number of k-points (npk) =  40000
     Max angular momentum in pseudopotentials (lmaxx) =  4

     Atomic positions and unit cell read from directory:
     tmp/pwscf.save/
 
     Message from routine setup:
     using ibrav=0 with symmetry is DISCOURAGED, use correct ibrav instead
  Calling `init_koopmans`...
 
     R & G space division:  proc/nbgrp/npool/nimage =       8
     Subspace diagonalization in iterative solution of the eigenvalue problem:
     a serial algorithm will be used

 
     Parallelization info
     --------------------
     sticks:   dense  smooth     PW     G-vecs:    dense   smooth      PW
     Min          36      36     11                  410      410      76
     Max          37      37     12                  412      412      77
     Sum         295     295     91                 3287     3287     609
 
     Using Slab Decomposition
 


     bravais-lattice index     =            0
     lattice parameter (alat)  =       7.2558  a.u.
     unit-cell volume          =     270.1072 (a.u.)^3
     number of atoms/cell      =            2
     number of atomic types    =            1
     number of electrons       =         8.00
     number of Kohn-Sham states=            4
     kinetic-energy cutoff     =      20.0000  Ry
     charge density cutoff     =      80.0000  Ry
     Exchange-correlation= PBE
                           (   1   4   3   4   0   0   0)

     celldm(1)=   7.255773  celldm(2)=   0.000000  celldm(3)=   0.000000
     celldm(4)=   0.000000  celldm(5)=   0.000000  celldm(6)=   0.000000

     crystal axes: (cart. coord. in units of alat)
               a(1) = (   0.000000   0.707107   0.707107 )  
               a(2) = (   0.707107   0.000000   0.707107 )  
               a(3) = (   0.707107   0.707107   0.000000 )  

     reciprocal axes: (cart. coord. in units 2 pi/alat)
               b(1) = ( -0.707107  0.707107  0.707107 )  
               b(2) = (  0.707107 -0.707107  0.707107 )  
               b(3) = (  0.707107  0.707107 -0.707107 )  


     PseudoPot. # 1 for Si read from file:
     pseudopotentials/Si.upf
     MD5 check sum: 02fab3f35e82123ef5bf1cb05d5b1a5e
     Pseudo is Norm-conserving + core correction, Zval =  4.0
     Generated using ONCVPSP code by D. R. Hamann
     Using radial grid of 1510 points,  6 beta functions with: 
                l(1) =   0
                l(2) =   0
                l(3) =   1
                l(4) =   1
                l(5) =   2
                l(6) =   2

     atomic species   valence    mass     pseudopotential
     Si                4.00    28.08500     Si( 1.00)

     48 Sym. Ops., with inversion, found (24 have fractional translation)



   Cartesian axes

     site n.     atom                  positions (alat units)
         1        Si     tau(   1) = (   0.0000000   0.0000000   0.0000000  )
         2        Si     tau(   2) = (   0.3535534   0.3535534   0.3535534  )

     number of k points=     8
                       cart. coord. in units 2pi/alat
        k(    1) = (   0.0000000   0.0000000   0.0000000), wk =   0.2500000
        k(    2) = (   0.3535534   0.3535534  -0.3535534), wk =   0.2500000
        k(    3) = (   0.3535534  -0.3535534   0.3535534), wk =   0.2500000
        k(    4) = (   0.7071068   0.0000000   0.0000000), wk =   0.2500000
        k(    5) = (  -0.3535534   0.3535534   0.3535534), wk =   0.2500000
        k(    6) = (   0.0000000   0.7071068   0.0000000), wk =   0.2500000
        k(    7) = (   0.0000000   0.0000000   0.7071068), wk =   0.2500000
        k(    8) = (   0.3535534   0.3535534   0.3535534), wk =   0.2500000

     Dense  grid:     3287 G-vectors     FFT dimensions: (  24,  24,  24)

     Estimated max dynamical RAM per process >       0.94 MB

     Estimated total dynamical RAM >       7.50 MB
     Starting wfcs are    8 randomized atomic wfcs

     The potential is recalculated from file :
     tmp/pwscf.save/charge-density


     Band Structure Calculation
     Davidson diagonalization with overlap

     ethr =  1.25E-08,  avg # of iterations = 14.9

     total cpu time spent up to now is        0.1 secs

     End of band structure calculation

          k = 0.0000 0.0000 0.0000 (   411 PWs)   bands (ev):

    -5.4894   6.5430   6.5430   6.5430

          k = 0.3536 0.3536-0.3536 (   410 PWs)   bands (ev):

    -3.1388  -0.5110   5.3043   5.3043

          k = 0.3536-0.3536 0.3536 (   410 PWs)   bands (ev):

    -3.1388  -0.5110   5.3043   5.3043

          k = 0.7071 0.0000 0.0000 (   412 PWs)   bands (ev):

    -1.3237  -1.3237   3.6111   3.6111

          k =-0.3536 0.3536 0.3536 (   410 PWs)   bands (ev):

    -3.1388  -0.5110   5.3043   5.3043

          k = 0.0000 0.7071 0.0000 (   412 PWs)   bands (ev):

    -1.3237  -1.3237   3.6111   3.6111

          k = 0.0000 0.0000 0.7071 (   412 PWs)   bands (ev):

    -1.3237  -1.3237   3.6111   3.6111

          k = 0.3536 0.3536 0.3536 (   410 PWs)   bands (ev):

    -3.1388  -0.5110   5.3043   5.3043

     highest occupied level (ev):     6.5430

     Writing all to output data dir tmp/pwscf.save/ :
     XML data file, pseudopotentials  Writing wavefunctions for k-point 
           1
           1   -0.070347    0.072414   -0.000000   -0.000000    0.010915   -0.000157
           2    0.130613    0.080678    0.247301   -0.218562   -0.026051    0.006875
           3    0.048104    0.107405   -0.069697    0.085983   -0.031204    0.036469
  Writing wavefunctions for k-point            2
           1    0.009990    0.078505   -0.022646    0.029248    0.014884    0.011525
           2   -0.142107    0.025157    0.070287    0.049141    0.015963   -0.022833
           3   -0.304795    0.425452   -0.110277    0.018216    0.013443    0.081352
  Writing wavefunctions for k-point            3
           1   -0.071768   -0.033347    0.074331   -0.027170    0.006266    0.017141
           2   -0.133409   -0.055078   -0.133277    0.055371   -0.004183   -0.010071
           3    0.021450   -0.202834   -0.040274   -0.522837   -0.044280    0.001103
  Writing wavefunctions for k-point            4
           1   -0.185253   -0.157122    0.001138    0.000826    0.001468    0.006687
           2   -0.107152   -0.151772    0.006844   -0.000035   -0.001057   -0.000929
           3   -0.522586   -0.083355   -0.136566    0.080568   -0.080561   -0.136563
  Writing wavefunctions for k-point            5
           1    0.030610    0.020768    0.030610    0.020768    0.043066   -0.008252
           2    0.077271    0.037208    0.077277    0.037201   -0.029304    0.010258
           3   -0.071614    0.075008   -0.011031   -0.050192    0.000001    0.000004
  Writing wavefunctions for k-point            6
           1   -0.001767    0.002186   -0.001767    0.002187    0.005133   -0.053232
           2   -0.005114    0.003848   -0.005115    0.003847    0.000861   -0.039730
           3   -0.090702   -0.118706    0.022571    0.055827   -0.007841    0.000315
  Writing wavefunctions for k-point            7
           1   -0.003806    0.000449    0.005189   -0.002684   -0.029245    0.033951
           2    0.004924    0.003147    0.003754    0.000794   -0.020185    0.044992
           3    0.049402   -0.097670    0.116580   -0.019254    0.014623   -0.011026
  Writing wavefunctions for k-point            8
           1    0.021362   -0.030198    0.036458   -0.006251    0.003181    0.018554
           2    0.061392   -0.059880   -0.085752   -0.001070    0.000347   -0.027858
           3   -0.089226   -0.004628   -0.059811   -0.066357   -0.060025    0.055991
, collected wavefunctions
 
     init_run     :      0.01s CPU      0.02s WALL (       1 calls)
     electrons    :      0.04s CPU      0.04s WALL (       1 calls)

     Called by init_run:
     wfcinit      :      0.00s CPU      0.00s WALL (       1 calls)
     potinit      :      0.00s CPU      0.00s WALL (       1 calls)
     hinit0       :      0.01s CPU      0.01s WALL (       1 calls)

     Called by electrons:
     c_bands      :      0.04s CPU      0.04s WALL (       1 calls)
     v_of_rho     :      0.00s CPU      0.00s WALL (       1 calls)

     Called by c_bands:
     init_us_2    :      0.00s CPU      0.00s WALL (       8 calls)
     cegterg      :      0.03s CPU      0.04s WALL (       8 calls)

     Called by *egterg:
     cdiaghg      :      0.00s CPU      0.00s WALL (     127 calls)
     h_psi        :      0.03s CPU      0.03s WALL (     135 calls)
     g_psi        :      0.00s CPU      0.00s WALL (     119 calls)

     Called by h_psi:
     h_psi:calbec :      0.00s CPU      0.00s WALL (     135 calls)
     vloc_psi     :      0.02s CPU      0.02s WALL (     135 calls)
                                        0.00s GPU  (     135 calls)
     add_vuspsi   :      0.00s CPU      0.00s WALL (     135 calls)

     General routines
     calbec       :      0.00s CPU      0.00s WALL (     135 calls)
     fft          :      0.00s CPU      0.00s WALL (      11 calls)
     fftw         :      0.02s CPU      0.02s WALL (    1032 calls)
     davcio       :      0.00s CPU      0.00s WALL (      16 calls)
 
     Parallel routines
 
     PWSCF        :      0.10s CPU      0.11s WALL

 
   This run was terminated on:  13:29:14  20Jan2026            

=------------------------------------------------------------------------------=
   JOB DONE.
=------------------------------------------------------------------------------=
