
     Program PWSCF v.7.5 starts on 20Jan2026 at 13:29:15 
        Git branch: koopmans
        Last git commit: 485eae7783f2b601f449c6ac6c71715612f00ebc-dirty
        Last git commit date: Fri Jan 16 16:15:35 2026 +0100
        Last git commit subject: Debugging

     This program is part of the open-source Quantum ESPRESSO suite
     for quantum simulation of materials; please cite
         "P. Giannozzi et al., J. Phys.:Condens. Matter 21 395502 (2009);
         "P. Giannozzi et al., J. Phys.:Condens. Matter 29 465901 (2017);
         "P. Giannozzi et al., J. Chem. Phys. 152 154105 (2020);
          URL http://www.quantum-espresso.org", 
     in publications or presentations arising from this work. More details at
     http://www.quantum-espresso.org/quote

     Parallel version (MPI), running on     8 processors

     MPI processes distributed on     1 nodes
     172636 MiB available memory on the printing compute node when the environment starts
 
     Reading input from espresso.pwi
Warning: card &IONS ignored
Warning: card &CELL ignored
Warning: card &FCP ignored
Warning: card &RISM ignored

     Current dimensions of program PWSCF are:
     Max number of different atomic species (ntypx) = 10
     Max number of k-points (npk) =  40000
     Max angular momentum in pseudopotentials (lmaxx) =  4

     Atomic positions and unit cell read from directory:
     tmp/pwscf.save/
 
     Message from routine setup:
     using ibrav=0 with symmetry is DISCOURAGED, use correct ibrav instead
  Calling `init_koopmans`...
 
     R & G space division:  proc/nbgrp/npool/nimage =       8
     Subspace diagonalization in iterative solution of the eigenvalue problem:
     a serial algorithm will be used

 
     Parallelization info
     --------------------
     sticks:   dense  smooth     PW     G-vecs:    dense   smooth      PW
     Min          36      36     11                  410      410      76
     Max          37      37     12                  412      412      77
     Sum         295     295     91                 3287     3287     609
 
     Using Slab Decomposition
 


     bravais-lattice index     =            0
     lattice parameter (alat)  =       7.2558  a.u.
     unit-cell volume          =     270.1072 (a.u.)^3
     number of atoms/cell      =            2
     number of atomic types    =            1
     number of electrons       =         8.00
     number of Kohn-Sham states=            4
     kinetic-energy cutoff     =      20.0000  Ry
     charge density cutoff     =      80.0000  Ry
     Exchange-correlation= PBE
                           (   1   4   3   4   0   0   0)

     celldm(1)=   7.255773  celldm(2)=   0.000000  celldm(3)=   0.000000
     celldm(4)=   0.000000  celldm(5)=   0.000000  celldm(6)=   0.000000

     crystal axes: (cart. coord. in units of alat)
               a(1) = (   0.000000   0.707107   0.707107 )  
               a(2) = (   0.707107   0.000000   0.707107 )  
               a(3) = (   0.707107   0.707107   0.000000 )  

     reciprocal axes: (cart. coord. in units 2 pi/alat)
               b(1) = ( -0.707107  0.707107  0.707107 )  
               b(2) = (  0.707107 -0.707107  0.707107 )  
               b(3) = (  0.707107  0.707107 -0.707107 )  


     PseudoPot. # 1 for Si read from file:
     pseudopotentials/Si.upf
     MD5 check sum: 02fab3f35e82123ef5bf1cb05d5b1a5e
     Pseudo is Norm-conserving + core correction, Zval =  4.0
     Generated using ONCVPSP code by D. R. Hamann
     Using radial grid of 1510 points,  6 beta functions with: 
                l(1) =   0
                l(2) =   0
                l(3) =   1
                l(4) =   1
                l(5) =   2
                l(6) =   2

     atomic species   valence    mass     pseudopotential
     Si                4.00    28.08500     Si( 1.00)

     48 Sym. Ops., with inversion, found (24 have fractional translation)



   Cartesian axes

     site n.     atom                  positions (alat units)
         1        Si     tau(   1) = (   0.0000000   0.0000000   0.0000000  )
         2        Si     tau(   2) = (   0.3535534   0.3535534   0.3535534  )

     number of k points=    37
                       cart. coord. in units 2pi/alat
        k(    1) = (   0.0000000   0.0000000   0.0000000), wk =   0.0540541
        k(    2) = (   0.0000000   0.1414214   0.0000000), wk =   0.0540541
        k(    3) = (   0.0000000   0.2828427   0.0000000), wk =   0.0540541
        k(    4) = (   0.0000000   0.4242641   0.0000000), wk =   0.0540541
        k(    5) = (   0.0000000   0.5656854   0.0000000), wk =   0.0540541
        k(    6) = (   0.0000000   0.7071068   0.0000000), wk =   0.0540541
        k(    7) = (   0.1767767   0.7071068   0.0000000), wk =   0.0540541
        k(    8) = (   0.3535534   0.7071068   0.0000000), wk =   0.0540541
        k(    9) = (   0.5303301   0.5303301   0.0000000), wk =   0.0540541
        k(   10) = (   0.4419417   0.4419417   0.0000000), wk =   0.0540541
        k(   11) = (   0.3535534   0.3535534   0.0000000), wk =   0.0540541
        k(   12) = (   0.2651650   0.2651650   0.0000000), wk =   0.0540541
        k(   13) = (   0.1767767   0.1767767   0.0000000), wk =   0.0540541
        k(   14) = (   0.0883883   0.0883883   0.0000000), wk =   0.0540541
        k(   15) = (   0.0000000   0.0000000   0.0000000), wk =   0.0540541
        k(   16) = (   0.0707107   0.0707107   0.0707107), wk =   0.0540541
        k(   17) = (   0.1414214   0.1414214   0.1414214), wk =   0.0540541
        k(   18) = (   0.2121320   0.2121320   0.2121320), wk =   0.0540541
        k(   19) = (   0.2828427   0.2828427   0.2828427), wk =   0.0540541
        k(   20) = (   0.3535534   0.3535534   0.3535534), wk =   0.0540541
        k(   21) = (   0.2946278   0.4714045   0.2946278), wk =   0.0540541
        k(   22) = (   0.2357023   0.5892557   0.2357023), wk =   0.0540541
        k(   23) = (   0.1767767   0.7071068   0.1767767), wk =   0.0540541
        k(   24) = (   0.2651650   0.7071068   0.0883883), wk =   0.0540541
        k(   25) = (   0.3535534   0.7071068   0.0000000), wk =   0.0540541
        k(   26) = (   0.3535534   0.6187184   0.0883883), wk =   0.0540541
        k(   27) = (   0.3535534   0.5303301   0.1767767), wk =   0.0540541
        k(   28) = (   0.3535534   0.4419417   0.2651650), wk =   0.0540541
        k(   29) = (   0.3535534   0.3535534   0.3535534), wk =   0.0540541
        k(   30) = (   0.3889087   0.3889087   0.2828427), wk =   0.0540541
        k(   31) = (   0.4242641   0.4242641   0.2121320), wk =   0.0540541
        k(   32) = (   0.4596194   0.4596194   0.1414214), wk =   0.0540541
        k(   33) = (   0.4949747   0.4949747   0.0707107), wk =   0.0540541
        k(   34) = (   0.5303301   0.5303301   0.0000000), wk =   0.0540541
        k(   35) = (   0.1767767   0.7071068   0.1767767), wk =   0.0540541
        k(   36) = (   0.0883883   0.7071068   0.0883883), wk =   0.0540541
        k(   37) = (   0.0000000   0.7071068   0.0000000), wk =   0.0540541

     Dense  grid:     3287 G-vectors     FFT dimensions: (  24,  24,  24)

     Estimated max dynamical RAM per process >       0.94 MB

     Estimated total dynamical RAM >       7.50 MB
     Starting wfcs are    8 randomized atomic wfcs

     The potential is recalculated from file :
     tmp/pwscf.save/charge-density


     Band Structure Calculation
     Davidson diagonalization with overlap

     ethr =  1.25E-08,  avg # of iterations = 15.0

     total cpu time spent up to now is        0.2 secs

     End of band structure calculation

          k = 0.0000 0.0000 0.0000 (   411 PWs)   bands (ev):

    -5.4894   6.5430   6.5430   6.5430

          k = 0.0000 0.1414 0.0000 (   399 PWs)   bands (ev):

    -5.3136   5.5992   5.9345   5.9345

          k = 0.0000 0.2828 0.0000 (   407 PWs)   bands (ev):

    -4.7914   3.9051   4.9963   4.9963

          k = 0.0000 0.4243 0.0000 (   415 PWs)   bands (ev):

    -3.9336   2.1016   4.2418   4.2418

          k = 0.0000 0.5657 0.0000 (   416 PWs)   bands (ev):

    -2.7646   0.3260   3.7705   3.7705

          k = 0.0000 0.7071 0.0000 (   412 PWs)   bands (ev):

    -1.3237  -1.3237   3.6111   3.6111

          k = 0.1768 0.7071 0.0000 (   412 PWs)   bands (ev):

    -1.2431  -1.2431   3.0330   3.0330

          k = 0.3536 0.7071 0.0000 (   412 PWs)   bands (ev):

    -1.1536  -1.1536   2.5880   2.5880

          k = 0.5303 0.5303 0.0000 (   409 PWs)   bands (ev):

    -1.7325  -0.7326   2.1337   4.0456

          k = 0.4419 0.4419 0.0000 (   403 PWs)   bands (ev):

    -2.4933   0.0012   2.0962   4.5503

          k = 0.3536 0.3536 0.0000 (   407 PWs)   bands (ev):

    -3.4343   1.0171   2.6950   5.1683

          k = 0.2652 0.2652 0.0000 (   409 PWs)   bands (ev):

    -4.2919   2.3023   3.6734   5.7802

          k = 0.1768 0.1768 0.0000 (   399 PWs)   bands (ev):

    -4.9467   3.8244   4.8498   6.2396

          k = 0.0884 0.0884 0.0000 (   403 PWs)   bands (ev):

    -5.3522   5.4746   5.9851   6.4774

          k = 0.0000 0.0000 0.0000 (   411 PWs)   bands (ev):

    -5.4894   6.5430   6.5430   6.5430

          k = 0.0707 0.0707 0.0707 (   405 PWs)   bands (ev):

    -5.3579   5.3690   6.3325   6.3325

          k = 0.1414 0.1414 0.1414 (   402 PWs)   bands (ev):

    -4.9697   3.4847   5.9362   5.9362

          k = 0.2121 0.2121 0.2121 (   401 PWs)   bands (ev):

    -4.3507   1.6846   5.5933   5.5933

          k = 0.2828 0.2828 0.2828 (   413 PWs)   bands (ev):

    -3.5974   0.1958   5.3770   5.3770

          k = 0.3536 0.3536 0.3536 (   410 PWs)   bands (ev):

    -3.1388  -0.5110   5.3043   5.3043

          k = 0.2946 0.4714 0.2946 (   405 PWs)   bands (ev):

    -2.9559  -0.4193   4.1103   5.0018

          k = 0.2357 0.5893 0.2357 (   405 PWs)   bands (ev):

    -2.4251  -0.3152   2.5556   4.4537

          k = 0.1768 0.7071 0.1768 (   409 PWs)   bands (ev):

    -1.7325  -0.7326   2.1337   4.0456

          k = 0.2652 0.7071 0.0884 (   410 PWs)   bands (ev):

    -1.5876  -0.8011   2.2502   3.3651

          k = 0.3536 0.7071 0.0000 (   412 PWs)   bands (ev):

    -1.1536  -1.1536   2.5880   2.5880

          k = 0.3536 0.6187 0.0884 (   404 PWs)   bands (ev):

    -1.9537  -0.4692   2.3178   3.3864

          k = 0.3536 0.5303 0.1768 (   414 PWs)   bands (ev):

    -2.5982  -0.3111   3.0152   4.3127

          k = 0.3536 0.4419 0.2652 (   406 PWs)   bands (ev):

    -3.0012  -0.4402   4.3566   5.0393

          k = 0.3536 0.3536 0.3536 (   410 PWs)   bands (ev):

    -3.1388  -0.5110   5.3043   5.3043

          k = 0.3889 0.3889 0.2828 (   405 PWs)   bands (ev):

    -3.0723  -0.4756   4.7686   5.1842

          k = 0.4243 0.4243 0.2121 (   408 PWs)   bands (ev):

    -2.8767  -0.3863   3.7651   4.8946

          k = 0.4596 0.4596 0.1414 (   407 PWs)   bands (ev):

    -2.5569  -0.3113   2.8116   4.5597

          k = 0.4950 0.4950 0.0707 (   404 PWs)   bands (ev):

    -2.1335  -0.4126   2.2021   4.2625

          k = 0.5303 0.5303 0.0000 (   409 PWs)   bands (ev):

    -1.7325  -0.7326   2.1337   4.0456

          k = 0.1768 0.7071 0.1768 (   409 PWs)   bands (ev):

    -1.7325  -0.7326   2.1337   4.0456

          k = 0.0884 0.7071 0.0884 (   412 PWs)   bands (ev):

    -1.3903  -1.1761   2.9191   3.7220

          k = 0.0000 0.7071 0.0000 (   412 PWs)   bands (ev):

    -1.3237  -1.3237   3.6111   3.6111

     Writing all to output data dir tmp/pwscf.save/ :
     XML data file, pseudopotentials  Writing wavefunctions for k-point 
           1
           1   -0.070347    0.072414   -0.000000   -0.000000    0.010915   -0.000157
           2    0.130613    0.080678    0.247301   -0.218562   -0.026051    0.006875
           3    0.048104    0.107405   -0.069697    0.085983   -0.031204    0.036469
  Writing wavefunctions for k-point            2
           1   -0.068660    0.057833   -0.000001   -0.000000    0.011281    0.000966
           2   -0.110670    0.091365   -0.018082    0.189271   -0.000001    0.000000
           3   -0.136706    0.005954    0.000001   -0.000000   -0.044015   -0.002391
  Writing wavefunctions for k-point            3
           1    0.059802   -0.053698   -0.000000    0.000002   -0.011419   -0.000613
           2    0.080504   -0.027467    0.049045   -0.099814   -0.000006    0.000001
           3   -0.032170    0.033460   -0.000002   -0.000002   -0.101580    0.040994
  Writing wavefunctions for k-point            4
           1    0.033312   -0.064016   -0.010547    0.003328   -0.010548    0.003328
           2   -0.049331   -0.032199    0.000000    0.000000    0.000000    0.000000
           3   -0.000882    0.033572    0.007125    0.044652   -0.109558    0.052540
  Writing wavefunctions for k-point            5
           1    0.000113    0.064617    0.006917   -0.006939    0.006916   -0.006938
           2    0.042028   -0.012536   -0.000000    0.000000   -0.000000    0.000000
           3    0.004205   -0.023333    0.112732   -0.083469    0.028833   -0.014874
  Writing wavefunctions for k-point            6
           1    0.006071   -0.002897    0.006070   -0.002895   -0.027072    0.049066
           2    0.000090   -0.001875    0.000094   -0.001876    0.034264   -0.011184
           3   -0.040002    0.108468    0.015798   -0.111041   -0.001595    0.001276
  Writing wavefunctions for k-point            7
           1   -0.013893    0.009033    0.021644   -0.060873    0.005475   -0.006540
           2   -0.010480   -0.013530   -0.000986   -0.008472   -0.015327    0.062761
           3    0.022211    0.055329   -0.032746    0.052714   -0.005621    0.031882
  Writing wavefunctions for k-point            8
           1    0.040082   -0.026964   -0.021046    0.002140    0.002517   -0.009223
           2    0.009290   -0.002257   -0.011058   -0.043072   -0.028078    0.039310
           3   -0.034013   -0.000665    0.017241    0.097195   -0.056648    0.082820
  Writing wavefunctions for k-point            9
           1    0.040316    0.024294    0.001263    0.005104    0.001263    0.005105
           2    0.006316   -0.000171   -0.047296   -0.044800    0.047297    0.044800
           3    0.064425    0.117326    0.010083   -0.034633    0.010080   -0.034633
  Writing wavefunctions for k-point           10
           1    0.071062    0.024281   -0.001580   -0.003217   -0.001577   -0.003216
           2    0.007280   -0.001067   -0.052766   -0.039277    0.052766    0.039277
           3    0.117276    0.044679   -0.015439   -0.034442   -0.015440   -0.034443
  Writing wavefunctions for k-point           11
           1    0.022318    0.086644   -0.000000    0.000002    0.004267   -0.007225
           2    0.007731   -0.004272    0.015376   -0.053355   -0.063985   -0.018439
           3    0.038819    0.120446    0.000000    0.000002    0.016871   -0.032913
  Writing wavefunctions for k-point           12
           1   -0.026787    0.092209    0.000000    0.000001    0.009105   -0.005005
           2    0.001549   -0.011104   -0.042012   -0.055647   -0.053825    0.040637
           3   -0.000726   -0.142497   -0.000000   -0.000005   -0.024945    0.025199
  Writing wavefunctions for k-point           13
           1    0.037318    0.091826    0.000000    0.000000    0.004310   -0.010212
           2    0.014785   -0.002835    0.052858   -0.077914   -0.056263   -0.038169
           3    0.146308   -0.101360    0.000006    0.000002   -0.031740   -0.005755
  Writing wavefunctions for k-point           14
           1   -0.068600    0.073477   -0.000002    0.000000    0.011147   -0.000383
           2    0.019222    0.000173    0.104317   -0.102461   -0.046400   -0.047241
           3   -0.152644    0.184979    0.000006    0.000008    0.023174   -0.002215
  Writing wavefunctions for k-point           15
           1   -0.095980   -0.031315   -0.000004    0.000002    0.004944    0.009733
           2    0.020072   -0.127826   -0.183566   -0.015202    0.044223    0.021099
           3   -0.130235   -0.467636   -0.154528   -0.154761    0.004229   -0.034638
  Writing wavefunctions for k-point           16
           1    0.006127   -0.094645    0.000242    0.000275   -0.008385    0.007366
           2    0.017968    0.113649    0.095862    0.069706    0.041260   -0.056734
           3   -0.215157    0.123298   -0.061032   -0.018611   -0.057920   -0.015732
  Writing wavefunctions for k-point           17
           1   -0.042356   -0.077767    0.001383    0.000406   -0.002950    0.010009
           2    0.074529    0.038436    0.071017   -0.022696   -0.024014   -0.075157
           3   -0.029544    0.088338    0.006574    0.167411   -0.035336    0.017639
  Writing wavefunctions for k-point           18
           1   -0.074823   -0.031240    0.003370   -0.001383    0.002757    0.006712
           2    0.057494    0.042634    0.053047   -0.007870   -0.012332   -0.083117
           3    0.087970   -0.014649   -0.055373   -0.086411    0.044613    0.031881
  Writing wavefunctions for k-point           19
           1   -0.046591   -0.050293    0.000142   -0.003732    0.008552    0.000328
           2   -0.005018   -0.071970   -0.058083    0.066791   -0.030728   -0.026722
           3   -0.044453   -0.098270    0.030533   -0.080985   -0.000761   -0.051959
  Writing wavefunctions for k-point           20
           1    0.036456    0.006262    0.021349    0.030206   -0.015373    0.010865
           2    0.061959   -0.059296   -0.085741   -0.001885    0.000612   -0.027853
           3   -0.086561    0.019542   -0.075029   -0.047409    0.000698    0.073798
  Writing wavefunctions for k-point           21
           1    0.040154   -0.003352    0.021669   -0.025620   -0.017041   -0.014416
           2    0.052509    0.067723   -0.081877   -0.010362   -0.002807    0.022197
           3   -0.035310   -0.075911   -0.017111   -0.006245    0.031083   -0.085161
  Writing wavefunctions for k-point           22
           1    0.008898   -0.043242   -0.015629   -0.023723   -0.024199    0.015941
           2   -0.041026    0.055102   -0.011172   -0.076299   -0.003514    0.000514
           3    0.097782   -0.038778   -0.003352    0.007757    0.088431    0.038208
  Writing wavefunctions for k-point           23
           1    0.004045   -0.046894   -0.038289    0.032209   -0.003383   -0.004023
           2   -0.003890   -0.004982   -0.002209    0.017954    0.064660    0.007957
           3   -0.083954   -0.104249    0.010111   -0.093761    0.035862    0.003866
  Writing wavefunctions for k-point           24
           1    0.041818   -0.003433   -0.037970   -0.032209    0.003450   -0.004066
           2    0.000226    0.021734    0.010427   -0.010650   -0.045536   -0.044602
           3    0.070419   -0.089067    0.094770   -0.011079    0.004335    0.037066
  Writing wavefunctions for k-point           25
           1    0.015833    0.013308   -0.038243   -0.004006    0.036816    0.025334
           2    0.025213   -0.036899   -0.028116   -0.012490   -0.009973    0.018120
           3   -0.062842    0.042488   -0.007146   -0.074552    0.049968   -0.054541
  Writing wavefunctions for k-point           26
           1   -0.031790   -0.000671   -0.022004   -0.022951   -0.000658    0.031204
           2   -0.035732    0.053229    0.062905   -0.012372   -0.004462   -0.002995
           3   -0.036079    0.044234    0.056789   -0.005766    0.058032    0.047333
  Writing wavefunctions for k-point           27
           1   -0.035045   -0.002615   -0.022930   -0.026630   -0.001855    0.024856
           2   -0.032503   -0.073668   -0.029109    0.075074   -0.014241    0.006283
           3    0.028627   -0.011917   -0.028669   -0.011816   -0.027451   -0.065947
  Writing wavefunctions for k-point           28
           1   -0.013334   -0.034033    0.014635   -0.033493   -0.019770    0.007746
           2    0.011928    0.084142    0.051064   -0.067933    0.024209   -0.003432
           3   -0.013236   -0.007455    0.004090    0.014631   -0.034995    0.062174
  Writing wavefunctions for k-point           29
           1   -0.017478   -0.032602    0.010696   -0.035411    0.018020    0.005443
           2    0.056929   -0.064138   -0.085610    0.005110   -0.001655   -0.027806
           3   -0.052181   -0.056874    0.003333   -0.077127   -0.041644   -0.056592
  Writing wavefunctions for k-point           30
           1    0.038615    0.005018    0.021343    0.027715    0.002529   -0.019463
           2    0.081509    0.029009   -0.036029   -0.075850    0.009040   -0.025396
           3   -0.077430   -0.011285   -0.018103   -0.024282   -0.004743    0.032550
  Writing wavefunctions for k-point           31
           1   -0.034681   -0.021913   -0.007213   -0.031976   -0.010941    0.017316
           2   -0.084284   -0.006351    0.053291    0.061978   -0.001947    0.025844
           3    0.081274    0.029768    0.005558    0.011980    0.009079   -0.024785
  Writing wavefunctions for k-point           32
           1   -0.012741    0.041400   -0.026347    0.013950    0.020600    0.006339
           2    0.069520    0.028312   -0.030539   -0.072503    0.008884   -0.021815
           3   -0.084673   -0.051636    0.000557    0.002298   -0.013412    0.021990
  Writing wavefunctions for k-point           33
           1    0.002199    0.045957   -0.016239    0.017878    0.023069   -0.001104
           2   -0.046871   -0.015484    0.032659    0.064885   -0.005410    0.016373
           3    0.116496    0.021888   -0.012143   -0.017759    0.005532   -0.029443
  Writing wavefunctions for k-point           34
           1   -0.027936    0.037880   -0.005194    0.000785   -0.005195    0.000785
           2    0.006295   -0.000564   -0.049990   -0.041776    0.049990    0.041776
           3    0.073668   -0.111755   -0.035332    0.007257   -0.035333    0.007253
  Writing wavefunctions for k-point           35
           1   -0.046322    0.008341    0.041089    0.028549   -0.002998    0.004314
           2    0.001407    0.006162    0.009621   -0.015319   -0.055170   -0.034647
           3   -0.100189   -0.088762   -0.005697   -0.094137    0.036003   -0.002177
  Writing wavefunctions for k-point           36
           1   -0.005198   -0.014509    0.005842    0.016312   -0.027171    0.057507
           2   -0.004665   -0.003044   -0.003568   -0.002327    0.003501    0.016641
           3   -0.044123    0.130028    0.020343   -0.059949   -0.056488    0.027864
  Writing wavefunctions for k-point           37
           1    0.004700   -0.004789    0.004700   -0.004789    0.003822    0.063855
           2   -0.000083   -0.001944   -0.000083   -0.001944   -0.018528   -0.001938
           3    0.030893   -0.109494    0.111965   -0.021540    0.000707   -0.016394
, collected wavefunctions
 
     init_run     :      0.01s CPU      0.02s WALL (       1 calls)
     electrons    :      0.12s CPU      0.13s WALL (       1 calls)

     Called by init_run:
     wfcinit      :      0.00s CPU      0.00s WALL (       1 calls)
     potinit      :      0.00s CPU      0.00s WALL (       1 calls)
     hinit0       :      0.01s CPU      0.01s WALL (       1 calls)

     Called by electrons:
     c_bands      :      0.12s CPU      0.13s WALL (       1 calls)
     v_of_rho     :      0.00s CPU      0.00s WALL (       1 calls)

     Called by c_bands:
     init_us_2    :      0.00s CPU      0.00s WALL (      37 calls)
     cegterg      :      0.10s CPU      0.11s WALL (      38 calls)

     Called by *egterg:
     cdiaghg      :      0.02s CPU      0.02s WALL (     593 calls)
     h_psi        :      0.07s CPU      0.08s WALL (     631 calls)
     g_psi        :      0.00s CPU      0.00s WALL (     556 calls)

     Called by h_psi:
     h_psi:calbec :      0.01s CPU      0.01s WALL (     631 calls)
     vloc_psi     :      0.06s CPU      0.07s WALL (     631 calls)
                                        0.00s GPU  (     631 calls)
     add_vuspsi   :      0.00s CPU      0.00s WALL (     631 calls)

     General routines
     calbec       :      0.01s CPU      0.01s WALL (     631 calls)
     fft          :      0.00s CPU      0.00s WALL (      11 calls)
     fftw         :      0.05s CPU      0.06s WALL (    4766 calls)
     davcio       :      0.00s CPU      0.00s WALL (      74 calls)
 
     Parallel routines
 
     PWSCF        :      0.18s CPU      0.21s WALL

 
   This run was terminated on:  13:29:16  20Jan2026            

=------------------------------------------------------------------------------=
   JOB DONE.
=------------------------------------------------------------------------------=
